+ 0 1 2 tcp 40 ------- 1 1.0 3.1 0 0
- 0 1 2 tcp 40 ------- 1 1.0 3.1 0 0
r 0.02128 1 2 tcp 40 ------- 1 1.0 3.1 0 0
+ 0.02128 2 3 tcp 40 ------- 1 1.0 3.1 0 0
- 0.02128 2 3 tcp 40 ------- 1 1.0 3.1 0 0
r 0.52768 2 3 tcp 40 ------- 1 1.0 3.1 0 0
+ 0.52768 3 2 ack 40 ------- 1 3.1 1.0 0 1
- 0.52768 3 2 ack 40 ------- 1 3.1 1.0 0 1
r 1.03408 3 2 ack 40 ------- 1 3.1 1.0 0 1
+ 1.03408 2 1 ack 40 ------- 1 3.1 1.0 0 1
- 1.03408 2 1 ack 40 ------- 1 3.1 1.0 0 1
r 1.05536 2 1 ack 40 ------- 1 3.1 1.0 0 1
+ 1.05536 1 2 tcp 1000 ------- 1 1.0 3.1 1 2
- 1.05536 1 2 tcp 1000 ------- 1 1.0 3.1 1 2
+ 1.05536 1 2 tcp 1000 ------- 1 1.0 3.1 2 3
- 1.08736 1 2 tcp 1000 ------- 1 1.0 3.1 2 3
r 1.10736 1 2 tcp 1000 ------- 1 1.0 3.1 1 2
+ 1.10736 2 3 tcp 1000 ------- 1 1.0 3.1 1 2
- 1.10736 2 3 tcp 1000 ------- 1 1.0 3.1 1 2
r 1.13936 1 2 tcp 1000 ------- 1 1.0 3.1 2 3
+ 1.13936 2 3 tcp 1000 ------- 1 1.0 3.1 2 3
- 1.26736 2 3 tcp 1000 ------- 1 1.0 3.1 2 3
r 1.76736 2 3 tcp 1000 ------- 1 1.0 3.1 1 2
+ 1.76736 3 2 ack 40 ------- 1 3.1 1.0 1 4
- 1.76736 3 2 ack 40 ------- 1 3.1 1.0 1 4
r 1.92736 2 3 tcp 1000 ------- 1 1.0 3.1 2 3
+ 1.92736 3 2 ack 40 ------- 1 3.1 1.0 2 5
- 1.92736 3 2 ack 40 ------- 1 3.1 1.0 2 5
r 2.27376 3 2 ack 40 ------- 1 3.1 1.0 1 4
+ 2.27376 2 1 ack 40 ------- 1 3.1 1.0 1 4
- 2.27376 2 1 ack 40 ------- 1 3.1 1.0 1 4
r 2.29504 2 1 ack 40 ------- 1 3.1 1.0 1 4
+ 2.29504 1 2 tcp 1000 ------- 1 1.0 3.1 3 6
- 2.29504 1 2 tcp 1000 ------- 1 1.0 3.1 3 6
+ 2.29504 1 2 tcp 1000 ------- 1 1.0 3.1 4 7
+ 2.29504 1 2 tcp 1000 ------- 1 1.0 3.1 5 8
+ 2.29504 1 2 tcp 1000 ------- 1 1.0 3.1 6 9
+ 2.29504 1 2 tcp 1000 ------- 1 1.0 3.1 7 10
+ 2.29504 1 2 tcp 1000 ------- 1 1.0 3.1 8 11
+ 2.29504 1 2 tcp 1000 ------- 1 1.0 3.1 9 12
+ 2.29504 1 2 tcp 1000 ------- 1 1.0 3.1 10 13
+ 2.29504 1 2 tcp 1000 ------- 1 1.0 3.1 11 14
- 2.32704 1 2 tcp 1000 ------- 1 1.0 3.1 4 7
r 2.34704 1 2 tcp 1000 ------- 1 1.0 3.1 3 6
+ 2.34704 2 3 tcp 1000 ------- 1 1.0 3.1 3 6
- 2.34704 2 3 tcp 1000 ------- 1 1.0 3.1 3 6
- 2.35904 1 2 tcp 1000 ------- 1 1.0 3.1 5 8
r 2.37904 1 2 tcp 1000 ------- 1 1.0 3.1 4 7
+ 2.37904 2 3 tcp 1000 ------- 1 1.0 3.1 4 7
- 2.39104 1 2 tcp 1000 ------- 1 1.0 3.1 6 9
r 2.41104 1 2 tcp 1000 ------- 1 1.0 3.1 5 8
+ 2.41104 2 3 tcp 1000 ------- 1 1.0 3.1 5 8
- 2.42304 1 2 tcp 1000 ------- 1 1.0 3.1 7 10
r 2.43376 3 2 ack 40 ------- 1 3.1 1.0 2 5
+ 2.43376 2 1 ack 40 ------- 1 3.1 1.0 2 5
- 2.43376 2 1 ack 40 ------- 1 3.1 1.0 2 5
r 2.44304 1 2 tcp 1000 ------- 1 1.0 3.1 6 9
+ 2.44304 2 3 tcp 1000 ------- 1 1.0 3.1 6 9
r 2.45504 2 1 ack 40 ------- 1 3.1 1.0 2 5
+ 2.45504 1 2 tcp 1000 ------- 1 1.0 3.1 12 15
- 2.45504 1 2 tcp 1000 ------- 1 1.0 3.1 8 11
r 2.47504 1 2 tcp 1000 ------- 1 1.0 3.1 7 10
+ 2.47504 2 3 tcp 1000 ------- 1 1.0 3.1 7 10
- 2.48704 1 2 tcp 1000 ------- 1 1.0 3.1 9 12
- 2.50704 2 3 tcp 1000 ------- 1 1.0 3.1 4 7
r 2.50704 1 2 tcp 1000 ------- 1 1.0 3.1 8 11
+ 2.50704 2 3 tcp 1000 ------- 1 1.0 3.1 8 11
- 2.51904 1 2 tcp 1000 ------- 1 1.0 3.1 10 13
r 2.53904 1 2 tcp 1000 ------- 1 1.0 3.1 9 12
+ 2.53904 2 3 tcp 1000 ------- 1 1.0 3.1 9 12
- 2.55104 1 2 tcp 1000 ------- 1 1.0 3.1 11 14
r 2.57104 1 2 tcp 1000 ------- 1 1.0 3.1 10 13
+ 2.57104 2 3 tcp 1000 ------- 1 1.0 3.1 10 13
- 2.58304 1 2 tcp 1000 ------- 1 1.0 3.1 12 15
r 2.60304 1 2 tcp 1000 ------- 1 1.0 3.1 11 14
+ 2.60304 2 3 tcp 1000 ------- 1 1.0 3.1 11 14
r 2.63504 1 2 tcp 1000 ------- 1 1.0 3.1 12 15
+ 2.63504 2 3 tcp 1000 ------- 1 1.0 3.1 12 15
- 2.66704 2 3 tcp 1000 ------- 1 1.0 3.1 5 8
- 2.82704 2 3 tcp 1000 ------- 1 1.0 3.1 6 9
- 2.98704 2 3 tcp 1000 ------- 1 1.0 3.1 7 10
r 3.00704 2 3 tcp 1000 ------- 1 1.0 3.1 3 6
+ 3.00704 3 2 ack 40 ------- 1 3.1 1.0 3 16
- 3.00704 3 2 ack 40 ------- 1 3.1 1.0 3 16
- 3.14704 2 3 tcp 1000 ------- 1 1.0 3.1 8 11
r 3.16704 2 3 tcp 1000 ------- 1 1.0 3.1 4 7
+ 3.16704 3 2 ack 40 ------- 1 3.1 1.0 4 17
- 3.16704 3 2 ack 40 ------- 1 3.1 1.0 4 17
- 3.30704 2 3 tcp 1000 ------- 1 1.0 3.1 9 12
r 3.32704 2 3 tcp 1000 ------- 1 1.0 3.1 5 8
+ 3.32704 3 2 ack 40 ------- 1 3.1 1.0 5 18
- 3.32704 3 2 ack 40 ------- 1 3.1 1.0 5 18
- 3.46704 2 3 tcp 1000 ------- 1 1.0 3.1 10 13
r 3.48704 2 3 tcp 1000 ------- 1 1.0 3.1 6 9
+ 3.48704 3 2 ack 40 ------- 1 3.1 1.0 6 19
- 3.48704 3 2 ack 40 ------- 1 3.1 1.0 6 19
r 3.51344 3 2 ack 40 ------- 1 3.1 1.0 3 16
+ 3.51344 2 1 ack 40 ------- 1 3.1 1.0 3 16
- 3.51344 2 1 ack 40 ------- 1 3.1 1.0 3 16
r 3.53472 2 1 ack 40 ------- 1 3.1 1.0 3 16
+ 3.53472 1 2 tcp 1000 ------- 1 1.0 3.1 13 20
- 3.53472 1 2 tcp 1000 ------- 1 1.0 3.1 13 20
r 3.58672 1 2 tcp 1000 ------- 1 1.0 3.1 13 20
+ 3.58672 2 3 tcp 1000 ------- 1 1.0 3.1 13 20
- 3.62704 2 3 tcp 1000 ------- 1 1.0 3.1 11 14
r 3.64704 2 3 tcp 1000 ------- 1 1.0 3.1 7 10
+ 3.64704 3 2 ack 40 ------- 1 3.1 1.0 7 21
- 3.64704 3 2 ack 40 ------- 1 3.1 1.0 7 21
r 3.67344 3 2 ack 40 ------- 1 3.1 1.0 4 17
+ 3.67344 2 1 ack 40 ------- 1 3.1 1.0 4 17
- 3.67344 2 1 ack 40 ------- 1 3.1 1.0 4 17
r 3.69472 2 1 ack 40 ------- 1 3.1 1.0 4 17
+ 3.69472 1 2 tcp 1000 ------- 1 1.0 3.1 14 22
- 3.69472 1 2 tcp 1000 ------- 1 1.0 3.1 14 22
r 3.74672 1 2 tcp 1000 ------- 1 1.0 3.1 14 22
+ 3.74672 2 3 tcp 1000 ------- 1 1.0 3.1 14 22
- 3.78704 2 3 tcp 1000 ------- 1 1.0 3.1 12 15
r 3.80704 2 3 tcp 1000 ------- 1 1.0 3.1 8 11
+ 3.80704 3 2 ack 40 ------- 1 3.1 1.0 8 23
- 3.80704 3 2 ack 40 ------- 1 3.1 1.0 8 23
r 3.83344 3 2 ack 40 ------- 1 3.1 1.0 5 18
+ 3.83344 2 1 ack 40 ------- 1 3.1 1.0 5 18
- 3.83344 2 1 ack 40 ------- 1 3.1 1.0 5 18
r 3.85472 2 1 ack 40 ------- 1 3.1 1.0 5 18
+ 3.85472 1 2 tcp 1000 ------- 1 1.0 3.1 15 24
- 3.85472 1 2 tcp 1000 ------- 1 1.0 3.1 15 24
r 3.90672 1 2 tcp 1000 ------- 1 1.0 3.1 15 24
+ 3.90672 2 3 tcp 1000 ------- 1 1.0 3.1 15 24
- 3.94704 2 3 tcp 1000 ------- 1 1.0 3.1 13 20
r 3.96704 2 3 tcp 1000 ------- 1 1.0 3.1 9 12
+ 3.96704 3 2 ack 40 ------- 1 3.1 1.0 9 25
- 3.96704 3 2 ack 40 ------- 1 3.1 1.0 9 25
r 3.99344 3 2 ack 40 ------- 1 3.1 1.0 6 19
+ 3.99344 2 1 ack 40 ------- 1 3.1 1.0 6 19
- 3.99344 2 1 ack 40 ------- 1 3.1 1.0 6 19
r 4.01472 2 1 ack 40 ------- 1 3.1 1.0 6 19
+ 4.01472 1 2 tcp 1000 ------- 1 1.0 3.1 16 26
- 4.01472 1 2 tcp 1000 ------- 1 1.0 3.1 16 26
r 4.06672 1 2 tcp 1000 ------- 1 1.0 3.1 16 26
+ 4.06672 2 3 tcp 1000 ------- 1 1.0 3.1 16 26
- 4.10704 2 3 tcp 1000 ------- 1 1.0 3.1 14 22
r 4.12704 2 3 tcp 1000 ------- 1 1.0 3.1 10 13
+ 4.12704 3 2 ack 40 ------- 1 3.1 1.0 10 27
- 4.12704 3 2 ack 40 ------- 1 3.1 1.0 10 27
r 4.15344 3 2 ack 40 ------- 1 3.1 1.0 7 21
+ 4.15344 2 1 ack 40 ------- 1 3.1 1.0 7 21
- 4.15344 2 1 ack 40 ------- 1 3.1 1.0 7 21
r 4.17472 2 1 ack 40 ------- 1 3.1 1.0 7 21
+ 4.17472 1 2 tcp 1000 ------- 1 1.0 3.1 17 28
- 4.17472 1 2 tcp 1000 ------- 1 1.0 3.1 17 28
r 4.22672 1 2 tcp 1000 ------- 1 1.0 3.1 17 28
+ 4.22672 2 3 tcp 1000 ------- 1 1.0 3.1 17 28
- 4.26704 2 3 tcp 1000 ------- 1 1.0 3.1 15 24
r 4.28704 2 3 tcp 1000 ------- 1 1.0 3.1 11 14
+ 4.28704 3 2 ack 40 ------- 1 3.1 1.0 11 29
- 4.28704 3 2 ack 40 ------- 1 3.1 1.0 11 29
r 4.31344 3 2 ack 40 ------- 1 3.1 1.0 8 23
+ 4.31344 2 1 ack 40 ------- 1 3.1 1.0 8 23
- 4.31344 2 1 ack 40 ------- 1 3.1 1.0 8 23
r 4.33472 2 1 ack 40 ------- 1 3.1 1.0 8 23
+ 4.33472 1 2 tcp 1000 ------- 1 1.0 3.1 18 30
- 4.33472 1 2 tcp 1000 ------- 1 1.0 3.1 18 30
r 4.38672 1 2 tcp 1000 ------- 1 1.0 3.1 18 30
+ 4.38672 2 3 tcp 1000 ------- 1 1.0 3.1 18 30
- 4.42704 2 3 tcp 1000 ------- 1 1.0 3.1 16 26
r 4.44704 2 3 tcp 1000 ------- 1 1.0 3.1 12 15
+ 4.44704 3 2 ack 40 ------- 1 3.1 1.0 12 31
- 4.44704 3 2 ack 40 ------- 1 3.1 1.0 12 31
r 4.47344 3 2 ack 40 ------- 1 3.1 1.0 9 25
+ 4.47344 2 1 ack 40 ------- 1 3.1 1.0 9 25
- 4.47344 2 1 ack 40 ------- 1 3.1 1.0 9 25
r 4.49472 2 1 ack 40 ------- 1 3.1 1.0 9 25
+ 4.49472 1 2 tcp 1000 ------- 1 1.0 3.1 19 32
- 4.49472 1 2 tcp 1000 ------- 1 1.0 3.1 19 32
r 4.54672 1 2 tcp 1000 ------- 1 1.0 3.1 19 32
+ 4.54672 2 3 tcp 1000 ------- 1 1.0 3.1 19 32
- 4.58704 2 3 tcp 1000 ------- 1 1.0 3.1 17 28
r 4.60704 2 3 tcp 1000 ------- 1 1.0 3.1 13 20
+ 4.60704 3 2 ack 40 ------- 1 3.1 1.0 13 33
- 4.60704 3 2 ack 40 ------- 1 3.1 1.0 13 33
r 4.63344 3 2 ack 40 ------- 1 3.1 1.0 10 27
+ 4.63344 2 1 ack 40 ------- 1 3.1 1.0 10 27
- 4.63344 2 1 ack 40 ------- 1 3.1 1.0 10 27
r 4.65472 2 1 ack 40 ------- 1 3.1 1.0 10 27
+ 4.65472 1 2 tcp 1000 ------- 1 1.0 3.1 20 34
- 4.65472 1 2 tcp 1000 ------- 1 1.0 3.1 20 34
r 4.70672 1 2 tcp 1000 ------- 1 1.0 3.1 20 34
+ 4.70672 2 3 tcp 1000 ------- 1 1.0 3.1 20 34
- 4.74704 2 3 tcp 1000 ------- 1 1.0 3.1 18 30
r 4.76704 2 3 tcp 1000 ------- 1 1.0 3.1 14 22
+ 4.76704 3 2 ack 40 ------- 1 3.1 1.0 14 35
- 4.76704 3 2 ack 40 ------- 1 3.1 1.0 14 35
r 4.79344 3 2 ack 40 ------- 1 3.1 1.0 11 29
+ 4.79344 2 1 ack 40 ------- 1 3.1 1.0 11 29
- 4.79344 2 1 ack 40 ------- 1 3.1 1.0 11 29
r 4.81472 2 1 ack 40 ------- 1 3.1 1.0 11 29
+ 4.81472 1 2 tcp 1000 ------- 1 1.0 3.1 21 36
- 4.81472 1 2 tcp 1000 ------- 1 1.0 3.1 21 36
r 4.86672 1 2 tcp 1000 ------- 1 1.0 3.1 21 36
+ 4.86672 2 3 tcp 1000 ------- 1 1.0 3.1 21 36
- 4.90704 2 3 tcp 1000 ------- 1 1.0 3.1 19 32
r 4.92704 2 3 tcp 1000 ------- 1 1.0 3.1 15 24
+ 4.92704 3 2 ack 40 ------- 1 3.1 1.0 15 37
- 4.92704 3 2 ack 40 ------- 1 3.1 1.0 15 37
r 4.95344 3 2 ack 40 ------- 1 3.1 1.0 12 31
+ 4.95344 2 1 ack 40 ------- 1 3.1 1.0 12 31
- 4.95344 2 1 ack 40 ------- 1 3.1 1.0 12 31
r 4.97472 2 1 ack 40 ------- 1 3.1 1.0 12 31
+ 4.97472 1 2 tcp 1000 ------- 1 1.0 3.1 22 38
- 4.97472 1 2 tcp 1000 ------- 1 1.0 3.1 22 38
r 5.02672 1 2 tcp 1000 ------- 1 1.0 3.1 22 38
+ 5.02672 2 3 tcp 1000 ------- 1 1.0 3.1 22 38
- 5.06704 2 3 tcp 1000 ------- 1 1.0 3.1 20 34
r 5.08704 2 3 tcp 1000 ------- 1 1.0 3.1 16 26
+ 5.08704 3 2 ack 40 ------- 1 3.1 1.0 16 39
- 5.08704 3 2 ack 40 ------- 1 3.1 1.0 16 39
r 5.11344 3 2 ack 40 ------- 1 3.1 1.0 13 33
+ 5.11344 2 1 ack 40 ------- 1 3.1 1.0 13 33
- 5.11344 2 1 ack 40 ------- 1 3.1 1.0 13 33
r 5.13472 2 1 ack 40 ------- 1 3.1 1.0 13 33
+ 5.13472 1 2 tcp 1000 ------- 1 1.0 3.1 23 40
- 5.13472 1 2 tcp 1000 ------- 1 1.0 3.1 23 40
r 5.18672 1 2 tcp 1000 ------- 1 1.0 3.1 23 40
+ 5.18672 2 3 tcp 1000 ------- 1 1.0 3.1 23 40
- 5.22704 2 3 tcp 1000 ------- 1 1.0 3.1 21 36
r 5.24704 2 3 tcp 1000 ------- 1 1.0 3.1 17 28
+ 5.24704 3 2 ack 40 ------- 1 3.1 1.0 17 41
- 5.24704 3 2 ack 40 ------- 1 3.1 1.0 17 41
r 5.27344 3 2 ack 40 ------- 1 3.1 1.0 14 35
+ 5.27344 2 1 ack 40 ------- 1 3.1 1.0 14 35
- 5.27344 2 1 ack 40 ------- 1 3.1 1.0 14 35
r 5.29472 2 1 ack 40 ------- 1 3.1 1.0 14 35
+ 5.29472 1 2 tcp 1000 ------- 1 1.0 3.1 24 42
- 5.29472 1 2 tcp 1000 ------- 1 1.0 3.1 24 42
r 5.34672 1 2 tcp 1000 ------- 1 1.0 3.1 24 42
+ 5.34672 2 3 tcp 1000 ------- 1 1.0 3.1 24 42
- 5.38704 2 3 tcp 1000 ------- 1 1.0 3.1 22 38
r 5.40704 2 3 tcp 1000 ------- 1 1.0 3.1 18 30
+ 5.40704 3 2 ack 40 ------- 1 3.1 1.0 18 43
- 5.40704 3 2 ack 40 ------- 1 3.1 1.0 18 43
r 5.43344 3 2 ack 40 ------- 1 3.1 1.0 15 37
+ 5.43344 2 1 ack 40 ------- 1 3.1 1.0 15 37
- 5.43344 2 1 ack 40 ------- 1 3.1 1.0 15 37
r 5.45472 2 1 ack 40 ------- 1 3.1 1.0 15 37
+ 5.45472 1 2 tcp 1000 ------- 1 1.0 3.1 25 44
- 5.45472 1 2 tcp 1000 ------- 1 1.0 3.1 25 44
r 5.50672 1 2 tcp 1000 ------- 1 1.0 3.1 25 44
+ 5.50672 2 3 tcp 1000 ------- 1 1.0 3.1 25 44
- 5.54704 2 3 tcp 1000 ------- 1 1.0 3.1 23 40
r 5.56704 2 3 tcp 1000 ------- 1 1.0 3.1 19 32
+ 5.56704 3 2 ack 40 ------- 1 3.1 1.0 19 45
- 5.56704 3 2 ack 40 ------- 1 3.1 1.0 19 45
r 5.59344 3 2 ack 40 ------- 1 3.1 1.0 16 39
+ 5.59344 2 1 ack 40 ------- 1 3.1 1.0 16 39
- 5.59344 2 1 ack 40 ------- 1 3.1 1.0 16 39
r 5.61472 2 1 ack 40 ------- 1 3.1 1.0 16 39
+ 5.61472 1 2 tcp 1000 ------- 1 1.0 3.1 26 46
- 5.61472 1 2 tcp 1000 ------- 1 1.0 3.1 26 46
r 5.66672 1 2 tcp 1000 ------- 1 1.0 3.1 26 46
+ 5.66672 2 3 tcp 1000 ------- 1 1.0 3.1 26 46
- 5.70704 2 3 tcp 1000 ------- 1 1.0 3.1 24 42
r 5.72704 2 3 tcp 1000 ------- 1 1.0 3.1 20 34
+ 5.72704 3 2 ack 40 ------- 1 3.1 1.0 20 47
- 5.72704 3 2 ack 40 ------- 1 3.1 1.0 20 47
r 5.75344 3 2 ack 40 ------- 1 3.1 1.0 17 41
+ 5.75344 2 1 ack 40 ------- 1 3.1 1.0 17 41
- 5.75344 2 1 ack 40 ------- 1 3.1 1.0 17 41
r 5.77472 2 1 ack 40 ------- 1 3.1 1.0 17 41
+ 5.77472 1 2 tcp 1000 ------- 1 1.0 3.1 27 48
- 5.77472 1 2 tcp 1000 ------- 1 1.0 3.1 27 48
r 5.82672 1 2 tcp 1000 ------- 1 1.0 3.1 27 48
+ 5.82672 2 3 tcp 1000 ------- 1 1.0 3.1 27 48
- 5.86704 2 3 tcp 1000 ------- 1 1.0 3.1 25 44
r 5.88704 2 3 tcp 1000 ------- 1 1.0 3.1 21 36
+ 5.88704 3 2 ack 40 ------- 1 3.1 1.0 21 49
- 5.88704 3 2 ack 40 ------- 1 3.1 1.0 21 49
r 5.91344 3 2 ack 40 ------- 1 3.1 1.0 18 43
+ 5.91344 2 1 ack 40 ------- 1 3.1 1.0 18 43
- 5.91344 2 1 ack 40 ------- 1 3.1 1.0 18 43
r 5.93472 2 1 ack 40 ------- 1 3.1 1.0 18 43
+ 5.93472 1 2 tcp 1000 ------- 1 1.0 3.1 28 50
- 5.93472 1 2 tcp 1000 ------- 1 1.0 3.1 28 50
r 5.98672 1 2 tcp 1000 ------- 1 1.0 3.1 28 50
+ 5.98672 2 3 tcp 1000 ------- 1 1.0 3.1 28 50
- 6.02704 2 3 tcp 1000 ------- 1 1.0 3.1 26 46
r 6.04704 2 3 tcp 1000 ------- 1 1.0 3.1 22 38
+ 6.04704 3 2 ack 40 ------- 1 3.1 1.0 22 51
- 6.04704 3 2 ack 40 ------- 1 3.1 1.0 22 51
r 6.07344 3 2 ack 40 ------- 1 3.1 1.0 19 45
+ 6.07344 2 1 ack 40 ------- 1 3.1 1.0 19 45
- 6.07344 2 1 ack 40 ------- 1 3.1 1.0 19 45
r 6.09472 2 1 ack 40 ------- 1 3.1 1.0 19 45
+ 6.09472 1 2 tcp 1000 ------- 1 1.0 3.1 29 52
- 6.09472 1 2 tcp 1000 ------- 1 1.0 3.1 29 52
r 6.14672 1 2 tcp 1000 ------- 1 1.0 3.1 29 52
+ 6.14672 2 3 tcp 1000 ------- 1 1.0 3.1 29 52
- 6.18704 2 3 tcp 1000 ------- 1 1.0 3.1 27 48
r 6.20704 2 3 tcp 1000 ------- 1 1.0 3.1 23 40
+ 6.20704 3 2 ack 40 ------- 1 3.1 1.0 23 53
- 6.20704 3 2 ack 40 ------- 1 3.1 1.0 23 53
r 6.23344 3 2 ack 40 ------- 1 3.1 1.0 20 47
+ 6.23344 2 1 ack 40 ------- 1 3.1 1.0 20 47
- 6.23344 2 1 ack 40 ------- 1 3.1 1.0 20 47
r 6.25472 2 1 ack 40 ------- 1 3.1 1.0 20 47
+ 6.25472 1 2 tcp 1000 ------- 1 1.0 3.1 30 54
- 6.25472 1 2 tcp 1000 ------- 1 1.0 3.1 30 54
r 6.30672 1 2 tcp 1000 ------- 1 1.0 3.1 30 54
+ 6.30672 2 3 tcp 1000 ------- 1 1.0 3.1 30 54
- 6.34704 2 3 tcp 1000 ------- 1 1.0 3.1 28 50
r 6.36704 2 3 tcp 1000 ------- 1 1.0 3.1 24 42
+ 6.36704 3 2 ack 40 ------- 1 3.1 1.0 24 55
- 6.36704 3 2 ack 40 ------- 1 3.1 1.0 24 55
r 6.39344 3 2 ack 40 ------- 1 3.1 1.0 21 49
+ 6.39344 2 1 ack 40 ------- 1 3.1 1.0 21 49
- 6.39344 2 1 ack 40 ------- 1 3.1 1.0 21 49
r 6.41472 2 1 ack 40 ------- 1 3.1 1.0 21 49
+ 6.41472 1 2 tcp 1000 ------- 1 1.0 3.1 31 56
- 6.41472 1 2 tcp 1000 ------- 1 1.0 3.1 31 56
r 6.46672 1 2 tcp 1000 ------- 1 1.0 3.1 31 56
+ 6.46672 2 3 tcp 1000 ------- 1 1.0 3.1 31 56
- 6.50704 2 3 tcp 1000 ------- 1 1.0 3.1 29 52
r 6.52704 2 3 tcp 1000 ------- 1 1.0 3.1 25 44
+ 6.52704 3 2 ack 40 ------- 1 3.1 1.0 25 57
- 6.52704 3 2 ack 40 ------- 1 3.1 1.0 25 57
r 6.55344 3 2 ack 40 ------- 1 3.1 1.0 22 51
+ 6.55344 2 1 ack 40 ------- 1 3.1 1.0 22 51
- 6.55344 2 1 ack 40 ------- 1 3.1 1.0 22 51
r 6.57472 2 1 ack 40 ------- 1 3.1 1.0 22 51
+ 6.57472 1 2 tcp 1000 ------- 1 1.0 3.1 32 58
- 6.57472 1 2 tcp 1000 ------- 1 1.0 3.1 32 58
r 6.62672 1 2 tcp 1000 ------- 1 1.0 3.1 32 58
+ 6.62672 2 3 tcp 1000 ------- 1 1.0 3.1 32 58
- 6.66704 2 3 tcp 1000 ------- 1 1.0 3.1 30 54
r 6.68704 2 3 tcp 1000 ------- 1 1.0 3.1 26 46
+ 6.68704 3 2 ack 40 ------- 1 3.1 1.0 26 59
- 6.68704 3 2 ack 40 ------- 1 3.1 1.0 26 59
r 6.71344 3 2 ack 40 ------- 1 3.1 1.0 23 53
+ 6.71344 2 1 ack 40 ------- 1 3.1 1.0 23 53
- 6.71344 2 1 ack 40 ------- 1 3.1 1.0 23 53
r 6.73472 2 1 ack 40 ------- 1 3.1 1.0 23 53
+ 6.73472 1 2 tcp 1000 ------- 1 1.0 3.1 33 60
- 6.73472 1 2 tcp 1000 ------- 1 1.0 3.1 33 60
r 6.78672 1 2 tcp 1000 ------- 1 1.0 3.1 33 60
+ 6.78672 2 3 tcp 1000 ------- 1 1.0 3.1 33 60
- 6.82704 2 3 tcp 1000 ------- 1 1.0 3.1 31 56
r 6.84704 2 3 tcp 1000 ------- 1 1.0 3.1 27 48
+ 6.84704 3 2 ack 40 ------- 1 3.1 1.0 27 61
- 6.84704 3 2 ack 40 ------- 1 3.1 1.0 27 61
r 6.87344 3 2 ack 40 ------- 1 3.1 1.0 24 55
+ 6.87344 2 1 ack 40 ------- 1 3.1 1.0 24 55
- 6.87344 2 1 ack 40 ------- 1 3.1 1.0 24 55
r 6.89472 2 1 ack 40 ------- 1 3.1 1.0 24 55
+ 6.89472 1 2 tcp 1000 ------- 1 1.0 3.1 34 62
- 6.89472 1 2 tcp 1000 ------- 1 1.0 3.1 34 62
r 6.94672 1 2 tcp 1000 ------- 1 1.0 3.1 34 62
+ 6.94672 2 3 tcp 1000 ------- 1 1.0 3.1 34 62
- 6.98704 2 3 tcp 1000 ------- 1 1.0 3.1 32 58
r 7.00704 2 3 tcp 1000 ------- 1 1.0 3.1 28 50
+ 7.00704 3 2 ack 40 ------- 1 3.1 1.0 28 63
- 7.00704 3 2 ack 40 ------- 1 3.1 1.0 28 63
r 7.03344 3 2 ack 40 ------- 1 3.1 1.0 25 57
+ 7.03344 2 1 ack 40 ------- 1 3.1 1.0 25 57
- 7.03344 2 1 ack 40 ------- 1 3.1 1.0 25 57
r 7.05472 2 1 ack 40 ------- 1 3.1 1.0 25 57
+ 7.05472 1 2 tcp 1000 ------- 1 1.0 3.1 35 64
- 7.05472 1 2 tcp 1000 ------- 1 1.0 3.1 35 64
r 7.10672 1 2 tcp 1000 ------- 1 1.0 3.1 35 64
+ 7.10672 2 3 tcp 1000 ------- 1 1.0 3.1 35 64
- 7.14704 2 3 tcp 1000 ------- 1 1.0 3.1 33 60
r 7.16704 2 3 tcp 1000 ------- 1 1.0 3.1 29 52
+ 7.16704 3 2 ack 40 ------- 1 3.1 1.0 29 65
- 7.16704 3 2 ack 40 ------- 1 3.1 1.0 29 65
r 7.19344 3 2 ack 40 ------- 1 3.1 1.0 26 59
+ 7.19344 2 1 ack 40 ------- 1 3.1 1.0 26 59
- 7.19344 2 1 ack 40 ------- 1 3.1 1.0 26 59
r 7.21472 2 1 ack 40 ------- 1 3.1 1.0 26 59
+ 7.21472 1 2 tcp 1000 ------- 1 1.0 3.1 36 66
- 7.21472 1 2 tcp 1000 ------- 1 1.0 3.1 36 66
r 7.26672 1 2 tcp 1000 ------- 1 1.0 3.1 36 66
+ 7.26672 2 3 tcp 1000 ------- 1 1.0 3.1 36 66
- 7.30704 2 3 tcp 1000 ------- 1 1.0 3.1 34 62
r 7.32704 2 3 tcp 1000 ------- 1 1.0 3.1 30 54
+ 7.32704 3 2 ack 40 ------- 1 3.1 1.0 30 67
- 7.32704 3 2 ack 40 ------- 1 3.1 1.0 30 67
r 7.35344 3 2 ack 40 ------- 1 3.1 1.0 27 61
+ 7.35344 2 1 ack 40 ------- 1 3.1 1.0 27 61
- 7.35344 2 1 ack 40 ------- 1 3.1 1.0 27 61
r 7.37472 2 1 ack 40 ------- 1 3.1 1.0 27 61
+ 7.37472 1 2 tcp 1000 ------- 1 1.0 3.1 37 68
- 7.37472 1 2 tcp 1000 ------- 1 1.0 3.1 37 68
r 7.42672 1 2 tcp 1000 ------- 1 1.0 3.1 37 68
+ 7.42672 2 3 tcp 1000 ------- 1 1.0 3.1 37 68
- 7.46704 2 3 tcp 1000 ------- 1 1.0 3.1 35 64
r 7.48704 2 3 tcp 1000 ------- 1 1.0 3.1 31 56
+ 7.48704 3 2 ack 40 ------- 1 3.1 1.0 31 69
- 7.48704 3 2 ack 40 ------- 1 3.1 1.0 31 69
r 7.51344 3 2 ack 40 ------- 1 3.1 1.0 28 63
+ 7.51344 2 1 ack 40 ------- 1 3.1 1.0 28 63
- 7.51344 2 1 ack 40 ------- 1 3.1 1.0 28 63
r 7.53472 2 1 ack 40 ------- 1 3.1 1.0 28 63
+ 7.53472 1 2 tcp 1000 ------- 1 1.0 3.1 38 70
- 7.53472 1 2 tcp 1000 ------- 1 1.0 3.1 38 70
r 7.58672 1 2 tcp 1000 ------- 1 1.0 3.1 38 70
+ 7.58672 2 3 tcp 1000 ------- 1 1.0 3.1 38 70
- 7.62704 2 3 tcp 1000 ------- 1 1.0 3.1 36 66
r 7.64704 2 3 tcp 1000 ------- 1 1.0 3.1 32 58
+ 7.64704 3 2 ack 40 ------- 1 3.1 1.0 32 71
- 7.64704 3 2 ack 40 ------- 1 3.1 1.0 32 71
r 7.67344 3 2 ack 40 ------- 1 3.1 1.0 29 65
+ 7.67344 2 1 ack 40 ------- 1 3.1 1.0 29 65
- 7.67344 2 1 ack 40 ------- 1 3.1 1.0 29 65
r 7.69472 2 1 ack 40 ------- 1 3.1 1.0 29 65
+ 7.69472 1 2 tcp 1000 ------- 1 1.0 3.1 39 72
- 7.69472 1 2 tcp 1000 ------- 1 1.0 3.1 39 72
r 7.74672 1 2 tcp 1000 ------- 1 1.0 3.1 39 72
+ 7.74672 2 3 tcp 1000 ------- 1 1.0 3.1 39 72
- 7.78704 2 3 tcp 1000 ------- 1 1.0 3.1 37 68
r 7.80704 2 3 tcp 1000 ------- 1 1.0 3.1 33 60
+ 7.80704 3 2 ack 40 ------- 1 3.1 1.0 33 73
- 7.80704 3 2 ack 40 ------- 1 3.1 1.0 33 73
r 7.83344 3 2 ack 40 ------- 1 3.1 1.0 30 67
+ 7.83344 2 1 ack 40 ------- 1 3.1 1.0 30 67
- 7.83344 2 1 ack 40 ------- 1 3.1 1.0 30 67
r 7.85472 2 1 ack 40 ------- 1 3.1 1.0 30 67
+ 7.85472 1 2 tcp 1000 ------- 1 1.0 3.1 40 74
- 7.85472 1 2 tcp 1000 ------- 1 1.0 3.1 40 74
r 7.90672 1 2 tcp 1000 ------- 1 1.0 3.1 40 74
+ 7.90672 2 3 tcp 1000 ------- 1 1.0 3.1 40 74
- 7.94704 2 3 tcp 1000 ------- 1 1.0 3.1 38 70
r 7.96704 2 3 tcp 1000 ------- 1 1.0 3.1 34 62
+ 7.96704 3 2 ack 40 ------- 1 3.1 1.0 34 75
- 7.96704 3 2 ack 40 ------- 1 3.1 1.0 34 75
r 7.99344 3 2 ack 40 ------- 1 3.1 1.0 31 69
+ 7.99344 2 1 ack 40 ------- 1 3.1 1.0 31 69
- 7.99344 2 1 ack 40 ------- 1 3.1 1.0 31 69
r 8.01472 2 1 ack 40 ------- 1 3.1 1.0 31 69
+ 8.01472 1 2 tcp 1000 ------- 1 1.0 3.1 41 76
- 8.01472 1 2 tcp 1000 ------- 1 1.0 3.1 41 76
r 8.06672 1 2 tcp 1000 ------- 1 1.0 3.1 41 76
+ 8.06672 2 3 tcp 1000 ------- 1 1.0 3.1 41 76
- 8.10704 2 3 tcp 1000 ------- 1 1.0 3.1 39 72
r 8.12704 2 3 tcp 1000 ------- 1 1.0 3.1 35 64
+ 8.12704 3 2 ack 40 ------- 1 3.1 1.0 35 77
- 8.12704 3 2 ack 40 ------- 1 3.1 1.0 35 77
r 8.15344 3 2 ack 40 ------- 1 3.1 1.0 32 71
+ 8.15344 2 1 ack 40 ------- 1 3.1 1.0 32 71
- 8.15344 2 1 ack 40 ------- 1 3.1 1.0 32 71
r 8.17472 2 1 ack 40 ------- 1 3.1 1.0 32 71
+ 8.17472 1 2 tcp 1000 ------- 1 1.0 3.1 42 78
- 8.17472 1 2 tcp 1000 ------- 1 1.0 3.1 42 78
r 8.22672 1 2 tcp 1000 ------- 1 1.0 3.1 42 78
+ 8.22672 2 3 tcp 1000 ------- 1 1.0 3.1 42 78
- 8.26704 2 3 tcp 1000 ------- 1 1.0 3.1 40 74
r 8.28704 2 3 tcp 1000 ------- 1 1.0 3.1 36 66
+ 8.28704 3 2 ack 40 ------- 1 3.1 1.0 36 79
- 8.28704 3 2 ack 40 ------- 1 3.1 1.0 36 79
r 8.31344 3 2 ack 40 ------- 1 3.1 1.0 33 73
+ 8.31344 2 1 ack 40 ------- 1 3.1 1.0 33 73
- 8.31344 2 1 ack 40 ------- 1 3.1 1.0 33 73
r 8.33472 2 1 ack 40 ------- 1 3.1 1.0 33 73
+ 8.33472 1 2 tcp 1000 ------- 1 1.0 3.1 43 80
- 8.33472 1 2 tcp 1000 ------- 1 1.0 3.1 43 80
r 8.38672 1 2 tcp 1000 ------- 1 1.0 3.1 43 80
+ 8.38672 2 3 tcp 1000 ------- 1 1.0 3.1 43 80
- 8.42704 2 3 tcp 1000 ------- 1 1.0 3.1 41 76
r 8.44704 2 3 tcp 1000 ------- 1 1.0 3.1 37 68
+ 8.44704 3 2 ack 40 ------- 1 3.1 1.0 37 81
- 8.44704 3 2 ack 40 ------- 1 3.1 1.0 37 81
r 8.47344 3 2 ack 40 ------- 1 3.1 1.0 34 75
+ 8.47344 2 1 ack 40 ------- 1 3.1 1.0 34 75
- 8.47344 2 1 ack 40 ------- 1 3.1 1.0 34 75
r 8.49472 2 1 ack 40 ------- 1 3.1 1.0 34 75
+ 8.49472 1 2 tcp 1000 ------- 1 1.0 3.1 44 82
- 8.49472 1 2 tcp 1000 ------- 1 1.0 3.1 44 82
r 8.54672 1 2 tcp 1000 ------- 1 1.0 3.1 44 82
+ 8.54672 2 3 tcp 1000 ------- 1 1.0 3.1 44 82
- 8.58704 2 3 tcp 1000 ------- 1 1.0 3.1 42 78
r 8.60704 2 3 tcp 1000 ------- 1 1.0 3.1 38 70
+ 8.60704 3 2 ack 40 ------- 1 3.1 1.0 38 83
- 8.60704 3 2 ack 40 ------- 1 3.1 1.0 38 83
r 8.63344 3 2 ack 40 ------- 1 3.1 1.0 35 77
+ 8.63344 2 1 ack 40 ------- 1 3.1 1.0 35 77
- 8.63344 2 1 ack 40 ------- 1 3.1 1.0 35 77
r 8.65472 2 1 ack 40 ------- 1 3.1 1.0 35 77
+ 8.65472 1 2 tcp 1000 ------- 1 1.0 3.1 45 84
- 8.65472 1 2 tcp 1000 ------- 1 1.0 3.1 45 84
r 8.70672 1 2 tcp 1000 ------- 1 1.0 3.1 45 84
+ 8.70672 2 3 tcp 1000 ------- 1 1.0 3.1 45 84
- 8.74704 2 3 tcp 1000 ------- 1 1.0 3.1 43 80
r 8.76704 2 3 tcp 1000 ------- 1 1.0 3.1 39 72
+ 8.76704 3 2 ack 40 ------- 1 3.1 1.0 39 85
- 8.76704 3 2 ack 40 ------- 1 3.1 1.0 39 85
r 8.79344 3 2 ack 40 ------- 1 3.1 1.0 36 79
+ 8.79344 2 1 ack 40 ------- 1 3.1 1.0 36 79
- 8.79344 2 1 ack 40 ------- 1 3.1 1.0 36 79
r 8.81472 2 1 ack 40 ------- 1 3.1 1.0 36 79
+ 8.81472 1 2 tcp 1000 ------- 1 1.0 3.1 46 86
- 8.81472 1 2 tcp 1000 ------- 1 1.0 3.1 46 86
r 8.86672 1 2 tcp 1000 ------- 1 1.0 3.1 46 86
+ 8.86672 2 3 tcp 1000 ------- 1 1.0 3.1 46 86
- 8.90704 2 3 tcp 1000 ------- 1 1.0 3.1 44 82
r 8.92704 2 3 tcp 1000 ------- 1 1.0 3.1 40 74
+ 8.92704 3 2 ack 40 ------- 1 3.1 1.0 40 87
- 8.92704 3 2 ack 40 ------- 1 3.1 1.0 40 87
r 8.95344 3 2 ack 40 ------- 1 3.1 1.0 37 81
+ 8.95344 2 1 ack 40 ------- 1 3.1 1.0 37 81
- 8.95344 2 1 ack 40 ------- 1 3.1 1.0 37 81
r 8.97472 2 1 ack 40 ------- 1 3.1 1.0 37 81
+ 8.97472 1 2 tcp 1000 ------- 1 1.0 3.1 47 88
- 8.97472 1 2 tcp 1000 ------- 1 1.0 3.1 47 88
r 9.02672 1 2 tcp 1000 ------- 1 1.0 3.1 47 88
+ 9.02672 2 3 tcp 1000 ------- 1 1.0 3.1 47 88
- 9.06704 2 3 tcp 1000 ------- 1 1.0 3.1 45 84
r 9.08704 2 3 tcp 1000 ------- 1 1.0 3.1 41 76
+ 9.08704 3 2 ack 40 ------- 1 3.1 1.0 41 89
- 9.08704 3 2 ack 40 ------- 1 3.1 1.0 41 89
r 9.11344 3 2 ack 40 ------- 1 3.1 1.0 38 83
+ 9.11344 2 1 ack 40 ------- 1 3.1 1.0 38 83
- 9.11344 2 1 ack 40 ------- 1 3.1 1.0 38 83
r 9.13472 2 1 ack 40 ------- 1 3.1 1.0 38 83
+ 9.13472 1 2 tcp 1000 ------- 1 1.0 3.1 48 90
- 9.13472 1 2 tcp 1000 ------- 1 1.0 3.1 48 90
r 9.18672 1 2 tcp 1000 ------- 1 1.0 3.1 48 90
+ 9.18672 2 3 tcp 1000 ------- 1 1.0 3.1 48 90
- 9.22704 2 3 tcp 1000 ------- 1 1.0 3.1 46 86
r 9.24704 2 3 tcp 1000 ------- 1 1.0 3.1 42 78
+ 9.24704 3 2 ack 40 ------- 1 3.1 1.0 42 91
- 9.24704 3 2 ack 40 ------- 1 3.1 1.0 42 91
r 9.27344 3 2 ack 40 ------- 1 3.1 1.0 39 85
+ 9.27344 2 1 ack 40 ------- 1 3.1 1.0 39 85
- 9.27344 2 1 ack 40 ------- 1 3.1 1.0 39 85
r 9.29472 2 1 ack 40 ------- 1 3.1 1.0 39 85
+ 9.29472 1 2 tcp 1000 ------- 1 1.0 3.1 49 92
- 9.29472 1 2 tcp 1000 ------- 1 1.0 3.1 49 92
r 9.34672 1 2 tcp 1000 ------- 1 1.0 3.1 49 92
+ 9.34672 2 3 tcp 1000 ------- 1 1.0 3.1 49 92
- 9.38704 2 3 tcp 1000 ------- 1 1.0 3.1 47 88
r 9.40704 2 3 tcp 1000 ------- 1 1.0 3.1 43 80
+ 9.40704 3 2 ack 40 ------- 1 3.1 1.0 43 93
- 9.40704 3 2 ack 40 ------- 1 3.1 1.0 43 93
r 9.43344 3 2 ack 40 ------- 1 3.1 1.0 40 87
+ 9.43344 2 1 ack 40 ------- 1 3.1 1.0 40 87
- 9.43344 2 1 ack 40 ------- 1 3.1 1.0 40 87
r 9.45472 2 1 ack 40 ------- 1 3.1 1.0 40 87
+ 9.45472 1 2 tcp 1000 ------- 1 1.0 3.1 50 94
- 9.45472 1 2 tcp 1000 ------- 1 1.0 3.1 50 94
r 9.50672 1 2 tcp 1000 ------- 1 1.0 3.1 50 94
+ 9.50672 2 3 tcp 1000 ------- 1 1.0 3.1 50 94
- 9.54704 2 3 tcp 1000 ------- 1 1.0 3.1 48 90
r 9.56704 2 3 tcp 1000 ------- 1 1.0 3.1 44 82
+ 9.56704 3 2 ack 40 ------- 1 3.1 1.0 44 95
- 9.56704 3 2 ack 40 ------- 1 3.1 1.0 44 95
r 9.59344 3 2 ack 40 ------- 1 3.1 1.0 41 89
+ 9.59344 2 1 ack 40 ------- 1 3.1 1.0 41 89
- 9.59344 2 1 ack 40 ------- 1 3.1 1.0 41 89
r 9.61472 2 1 ack 40 ------- 1 3.1 1.0 41 89
+ 9.61472 1 2 tcp 1000 ------- 1 1.0 3.1 51 96
- 9.61472 1 2 tcp 1000 ------- 1 1.0 3.1 51 96
r 9.66672 1 2 tcp 1000 ------- 1 1.0 3.1 51 96
+ 9.66672 2 3 tcp 1000 ------- 1 1.0 3.1 51 96
- 9.70704 2 3 tcp 1000 ------- 1 1.0 3.1 49 92
r 9.72704 2 3 tcp 1000 ------- 1 1.0 3.1 45 84
+ 9.72704 3 2 ack 40 ------- 1 3.1 1.0 45 97
- 9.72704 3 2 ack 40 ------- 1 3.1 1.0 45 97
r 9.75344 3 2 ack 40 ------- 1 3.1 1.0 42 91
+ 9.75344 2 1 ack 40 ------- 1 3.1 1.0 42 91
- 9.75344 2 1 ack 40 ------- 1 3.1 1.0 42 91
r 9.77472 2 1 ack 40 ------- 1 3.1 1.0 42 91
+ 9.77472 1 2 tcp 1000 ------- 1 1.0 3.1 52 98
- 9.77472 1 2 tcp 1000 ------- 1 1.0 3.1 52 98
r 9.82672 1 2 tcp 1000 ------- 1 1.0 3.1 52 98
+ 9.82672 2 3 tcp 1000 ------- 1 1.0 3.1 52 98
- 9.86704 2 3 tcp 1000 ------- 1 1.0 3.1 50 94
r 9.88704 2 3 tcp 1000 ------- 1 1.0 3.1 46 86
+ 9.88704 3 2 ack 40 ------- 1 3.1 1.0 46 99
- 9.88704 3 2 ack 40 ------- 1 3.1 1.0 46 99
r 9.91344 3 2 ack 40 ------- 1 3.1 1.0 43 93
+ 9.91344 2 1 ack 40 ------- 1 3.1 1.0 43 93
- 9.91344 2 1 ack 40 ------- 1 3.1 1.0 43 93
r 9.93472 2 1 ack 40 ------- 1 3.1 1.0 43 93
+ 9.93472 1 2 tcp 1000 ------- 1 1.0 3.1 53 100
- 9.93472 1 2 tcp 1000 ------- 1 1.0 3.1 53 100
r 9.98672 1 2 tcp 1000 ------- 1 1.0 3.1 53 100
+ 9.98672 2 3 tcp 1000 ------- 1 1.0 3.1 53 100
- 10.02704 2 3 tcp 1000 ------- 1 1.0 3.1 51 96
r 10.04704 2 3 tcp 1000 ------- 1 1.0 3.1 47 88
+ 10.04704 3 2 ack 40 ------- 1 3.1 1.0 47 101
- 10.04704 3 2 ack 40 ------- 1 3.1 1.0 47 101
r 10.07344 3 2 ack 40 ------- 1 3.1 1.0 44 95
+ 10.07344 2 1 ack 40 ------- 1 3.1 1.0 44 95
- 10.07344 2 1 ack 40 ------- 1 3.1 1.0 44 95
r 10.09472 2 1 ack 40 ------- 1 3.1 1.0 44 95
+ 10.09472 1 2 tcp 1000 ------- 1 1.0 3.1 54 102
- 10.09472 1 2 tcp 1000 ------- 1 1.0 3.1 54 102
r 10.14672 1 2 tcp 1000 ------- 1 1.0 3.1 54 102
+ 10.14672 2 3 tcp 1000 ------- 1 1.0 3.1 54 102
- 10.18704 2 3 tcp 1000 ------- 1 1.0 3.1 52 98
r 10.20704 2 3 tcp 1000 ------- 1 1.0 3.1 48 90
+ 10.20704 3 2 ack 40 ------- 1 3.1 1.0 48 103
- 10.20704 3 2 ack 40 ------- 1 3.1 1.0 48 103
r 10.23344 3 2 ack 40 ------- 1 3.1 1.0 45 97
+ 10.23344 2 1 ack 40 ------- 1 3.1 1.0 45 97
- 10.23344 2 1 ack 40 ------- 1 3.1 1.0 45 97
r 10.25472 2 1 ack 40 ------- 1 3.1 1.0 45 97
+ 10.25472 1 2 tcp 1000 ------- 1 1.0 3.1 55 104
- 10.25472 1 2 tcp 1000 ------- 1 1.0 3.1 55 104
r 10.30672 1 2 tcp 1000 ------- 1 1.0 3.1 55 104
+ 10.30672 2 3 tcp 1000 ------- 1 1.0 3.1 55 104
- 10.34704 2 3 tcp 1000 ------- 1 1.0 3.1 53 100
r 10.36704 2 3 tcp 1000 ------- 1 1.0 3.1 49 92
+ 10.36704 3 2 ack 40 ------- 1 3.1 1.0 49 105
- 10.36704 3 2 ack 40 ------- 1 3.1 1.0 49 105
r 10.39344 3 2 ack 40 ------- 1 3.1 1.0 46 99
+ 10.39344 2 1 ack 40 ------- 1 3.1 1.0 46 99
- 10.39344 2 1 ack 40 ------- 1 3.1 1.0 46 99
r 10.41472 2 1 ack 40 ------- 1 3.1 1.0 46 99
+ 10.41472 1 2 tcp 1000 ------- 1 1.0 3.1 56 106
- 10.41472 1 2 tcp 1000 ------- 1 1.0 3.1 56 106
r 10.46672 1 2 tcp 1000 ------- 1 1.0 3.1 56 106
+ 10.46672 2 3 tcp 1000 ------- 1 1.0 3.1 56 106
- 10.50704 2 3 tcp 1000 ------- 1 1.0 3.1 54 102
r 10.52704 2 3 tcp 1000 ------- 1 1.0 3.1 50 94
+ 10.52704 3 2 ack 40 ------- 1 3.1 1.0 50 107
- 10.52704 3 2 ack 40 ------- 1 3.1 1.0 50 107
r 10.55344 3 2 ack 40 ------- 1 3.1 1.0 47 101
+ 10.55344 2 1 ack 40 ------- 1 3.1 1.0 47 101
- 10.55344 2 1 ack 40 ------- 1 3.1 1.0 47 101
r 10.57472 2 1 ack 40 ------- 1 3.1 1.0 47 101
+ 10.57472 1 2 tcp 1000 ------- 1 1.0 3.1 57 108
- 10.57472 1 2 tcp 1000 ------- 1 1.0 3.1 57 108
r 10.62672 1 2 tcp 1000 ------- 1 1.0 3.1 57 108
+ 10.62672 2 3 tcp 1000 ------- 1 1.0 3.1 57 108
- 10.66704 2 3 tcp 1000 ------- 1 1.0 3.1 55 104
r 10.68704 2 3 tcp 1000 ------- 1 1.0 3.1 51 96
+ 10.68704 3 2 ack 40 ------- 1 3.1 1.0 51 109
- 10.68704 3 2 ack 40 ------- 1 3.1 1.0 51 109
r 10.71344 3 2 ack 40 ------- 1 3.1 1.0 48 103
+ 10.71344 2 1 ack 40 ------- 1 3.1 1.0 48 103
- 10.71344 2 1 ack 40 ------- 1 3.1 1.0 48 103
r 10.73472 2 1 ack 40 ------- 1 3.1 1.0 48 103
+ 10.73472 1 2 tcp 1000 ------- 1 1.0 3.1 58 110
- 10.73472 1 2 tcp 1000 ------- 1 1.0 3.1 58 110
r 10.78672 1 2 tcp 1000 ------- 1 1.0 3.1 58 110
+ 10.78672 2 3 tcp 1000 ------- 1 1.0 3.1 58 110
- 10.82704 2 3 tcp 1000 ------- 1 1.0 3.1 56 106
r 10.84704 2 3 tcp 1000 ------- 1 1.0 3.1 52 98
+ 10.84704 3 2 ack 40 ------- 1 3.1 1.0 52 111
- 10.84704 3 2 ack 40 ------- 1 3.1 1.0 52 111
r 10.87344 3 2 ack 40 ------- 1 3.1 1.0 49 105
+ 10.87344 2 1 ack 40 ------- 1 3.1 1.0 49 105
- 10.87344 2 1 ack 40 ------- 1 3.1 1.0 49 105
r 10.89472 2 1 ack 40 ------- 1 3.1 1.0 49 105
+ 10.89472 1 2 tcp 1000 ------- 1 1.0 3.1 59 112